98   
1    

1    
  0.0038840372586065   0.0000000000000000   0.0031486909301734
  -0.0031562091    0.0000117697   -0.0004472551
   0.0002371105    0.0000499508   -0.0000100106
   0.0000054145   -0.0000003243    0.0000001778
   0.0000060972   -0.0000008983   -0.0000000208
   0.0000061023    0.0000018307   -0.0000000218
   0.0000053935    0.0000013164    0.0000001681
   0.0002355218   -0.0000487290   -0.0000095997
  -0.0000465101    0.0001143089   -0.0000099585
   0.0000282443    0.0000137560    0.0000018056
   0.0000078874    0.0000076073   -0.0000001312
   0.0000014020    0.0000004721    0.0000000112
   0.0000078684   -0.0000066609   -0.0000001299
   0.0000283229   -0.0000129001    0.0000017935
  -0.0000459292   -0.0001132607   -0.0000096501
  -0.0000076086    0.0000088090    0.0000001770
   0.0000004928   -0.0000001175   -0.0000001311
   0.0000052090    0.0000024889    0.0000000174
   0.0000052202   -0.0000015637    0.0000000171
   0.0000005406    0.0000010380   -0.0000001300
  -0.0000076076   -0.0000078584    0.0000001688
   0.0000051972    0.0000004072    0.0000017996
   0.0000025971    0.0000038442   -0.0000000212
  -0.0000004784    0.0000015518    0.0000000112
   0.0000017033    0.0000004616    0.0000000172
  -0.0000004764   -0.0000006222    0.0000000111
   0.0000025976   -0.0000029253   -0.0000000214
  -0.0000014606    0.0000021896   -0.0000001302
  -0.0000014980   -0.0000012708   -0.0000001309
   0.0000025927    0.0000011200   -0.0000000217
  -0.0000014802    0.0000106886   -0.0000001305
  -0.0000014784   -0.0000097730   -0.0000001306
   0.0000026020   -0.0000001984   -0.0000000209
  -0.0000004765   -0.0000006212    0.0000000111
   0.0000017033    0.0000004567    0.0000000172
  -0.0000004783    0.0000015520    0.0000000112
  -0.0000076076    0.0000071398    0.0000001721
   0.0000051973    0.0000004440    0.0000017996
  -0.0000076087   -0.0000062497    0.0000001736
   0.0000005219   -0.0000109304   -0.0000001304
   0.0000052205   -0.0000015630    0.0000000172
   0.0000052088    0.0000024923    0.0000000172
   0.0000005115    0.0000118374   -0.0000001306
  -0.0000462548    0.0002125522   -0.0000097535
  -0.0000461847   -0.0002123769   -0.0000098559
   0.0000283398   -0.0000128891    0.0000017973
   0.0000078943    0.0000053067   -0.0000001307
   0.0000014020    0.0000004712    0.0000000112
   0.0000078615   -0.0000043532   -0.0000001303
   0.0000282276    0.0000137668    0.0000018018
   0.0011241436    0.0003556373    0.0001853582
   0.0011402484   -0.0003670205    0.0001829298
  -0.0000121766    0.0000338974   -0.0000181316
  -0.0000028263   -0.0000039896    0.0000006420
  -0.0000064750   -0.0000004712    0.0000001500
  -0.0000028413    0.0000030407    0.0000006406
  -0.0000121194   -0.0000347141   -0.0000181373
   0.0005063682   -0.0000009073    0.0001841575
  -0.0000159821   -0.0000847476    0.0000147977
  -0.0000153119    0.0000009630   -0.0000002508
  -0.0000022884    0.0000011096   -0.0000000790
  -0.0000022809   -0.0000020408   -0.0000000791
  -0.0000153140   -0.0000019468   -0.0000002486
  -0.0000163589    0.0000835240    0.0000147784
   0.0000167749    0.0000171911   -0.0000181457
   0.0000051901   -0.0000108110   -0.0000002509
  -0.0000034463   -0.0000064997    0.0000000838
  -0.0000038200   -0.0000004722   -0.0000000045
  -0.0000034731    0.0000055518    0.0000000835
   0.0000051543    0.0000099337   -0.0000002486
   0.0000168213   -0.0000179923   -0.0000181236
  -0.0000016115   -0.0000046891    0.0000006432
  -0.0000003741    0.0000000069   -0.0000000790
  -0.0000001625   -0.0000025730   -0.0000000045
  -0.0000001657    0.0000016465   -0.0000000045
  -0.0000003716   -0.0000009301   -0.0000000790
  -0.0000016282    0.0000037410    0.0000006396
   0.0000027220   -0.0000004186    0.0000021260
  -0.0000008502   -0.0000037041    0.0000001498
  -0.0000030950   -0.0000015695   -0.0000000790
   0.0000069758   -0.0000004612    0.0000000837
  -0.0000031016    0.0000006408   -0.0000000790
  -0.0000008589    0.0000027844    0.0000001501
  -0.0000010360   -0.0000018701   -0.0000002183
  -0.0000010411    0.0000009497   -0.0000002186
   0.0000044714   -0.0000011616    0.0000006424
   0.0000026562   -0.0000122817   -0.0000002498
   0.0000026512    0.0000113710   -0.0000002497
   0.0000044601    0.0000002424    0.0000006403
  -0.0000054491    0.0000006668   -0.0000002182
  -0.0000060579   -0.0000004566    0.0000001392
  -0.0000054326   -0.0000015954   -0.0000002187
  -0.0000425429   -0.0000171471   -0.0000181485
   0.0001295572   -0.0000004318    0.0000147883
  -0.0000427030    0.0000162809   -0.0000181207
  -0.0000209724    0.0000132099    0.0000021241
  -0.0000030012    0.0000020800   -0.0000002184
  -0.0000029906   -0.0000030050   -0.0000002185
  -0.0000208929   -0.0000141045    0.0000021280
