phonopy:
  version: 2.12.0
  calculator: dftbp
  frequency_unit_conversion_factor: 15.633302
  symmetry_tolerance: 1.00000e-06
  configuration:
    displacement_distance: "0.005"
    create_displacements: ".true."
    dim: "7 7 1"
    symmetry_tolerance: "1e-06"
    calculator: "dftbp"

physical_unit:
  atomic_mass: "AMU"
  length: "au"
  force_constants: "hartree/au^2"

space_group:
  type: "P6/mmm"
  number: 191
  Hall_symbol: "-P 6 2"

supercell_matrix:
- [   7,   0,   0 ]
- [   0,   7,   0 ]
- [   0,   0,   1 ]

primitive_cell:
  lattice:
  - [     4.661207623081308,     0.000000000000000,     0.000000000000000 ] # a
  - [     2.330603810595791,     4.036724212986709,     0.000000000000000 ] # b
  - [     0.000000000000000,     0.000000000000000,    26.451063242894584 ] # c
  points:
  - symbol: C  # 1
    coordinates: [  0.333333333300000,  0.333333333300000,  0.500000000000000 ]
    mass: 12.010700
  - symbol: C  # 2
    coordinates: [  0.000000000000000,  0.000000000000000,  0.500000000000000 ]
    mass: 12.010700
  reciprocal_lattice: # without 2pi
  - [     0.214536678230811,    -0.123862808905479,     0.000000000000000 ] # a*
  - [     0.000000000000000,     0.247725617911390,     0.000000000000000 ] # b*
  - [     0.000000000000000,     0.000000000000000,     0.037805663644490 ] # c*

unit_cell:
  lattice:
  - [     4.661207623081308,     0.000000000000000,     0.000000000000000 ] # a
  - [     2.330603810595791,     4.036724212986709,     0.000000000000000 ] # b
  - [     0.000000000000000,     0.000000000000000,    26.451063242894584 ] # c
  points:
  - symbol: C  # 1
    coordinates: [  0.333333333300000,  0.333333333300000,  0.500000000000000 ]
    mass: 12.010700
    reduced_to: 1
  - symbol: C  # 2
    coordinates: [  0.000000000000000,  0.000000000000000,  0.500000000000000 ]
    mass: 12.010700
    reduced_to: 2

supercell:
  lattice:
  - [    32.628453361569157,     0.000000000000000,     0.000000000000000 ] # a
  - [    16.314226674170538,    28.257069490906961,     0.000000000000000 ] # b
  - [     0.000000000000000,     0.000000000000000,    26.451063242894584 ] # c
  points:
  - symbol: C  # 1
    coordinates: [  0.047619047614286,  0.047619047614286,  0.500000000000000 ]
    mass: 12.010700
    reduced_to: 1
  - symbol: C  # 2
    coordinates: [  0.190476190471429,  0.047619047614286,  0.500000000000000 ]
    mass: 12.010700
    reduced_to: 1
  - symbol: C  # 3
    coordinates: [  0.333333333328571,  0.047619047614286,  0.500000000000000 ]
    mass: 12.010700
    reduced_to: 1
  - symbol: C  # 4
    coordinates: [  0.476190476185714,  0.047619047614286,  0.500000000000000 ]
    mass: 12.010700
    reduced_to: 1
  - symbol: C  # 5
    coordinates: [  0.619047619042857,  0.047619047614286,  0.500000000000000 ]
    mass: 12.010700
    reduced_to: 1
  - symbol: C  # 6
    coordinates: [  0.761904761900000,  0.047619047614286,  0.500000000000000 ]
    mass: 12.010700
    reduced_to: 1
  - symbol: C  # 7
    coordinates: [  0.904761904757143,  0.047619047614286,  0.500000000000000 ]
    mass: 12.010700
    reduced_to: 1
  - symbol: C  # 8
    coordinates: [  0.047619047614286,  0.190476190471429,  0.500000000000000 ]
    mass: 12.010700
    reduced_to: 1
  - symbol: C  # 9
    coordinates: [  0.190476190471429,  0.190476190471429,  0.500000000000000 ]
    mass: 12.010700
    reduced_to: 1
  - symbol: C  # 10
    coordinates: [  0.333333333328571,  0.190476190471429,  0.500000000000000 ]
    mass: 12.010700
    reduced_to: 1
  - symbol: C  # 11
    coordinates: [  0.476190476185714,  0.190476190471429,  0.500000000000000 ]
    mass: 12.010700
    reduced_to: 1
  - symbol: C  # 12
    coordinates: [  0.619047619042857,  0.190476190471429,  0.500000000000000 ]
    mass: 12.010700
    reduced_to: 1
  - symbol: C  # 13
    coordinates: [  0.761904761900000,  0.190476190471429,  0.500000000000000 ]
    mass: 12.010700
    reduced_to: 1
  - symbol: C  # 14
    coordinates: [  0.904761904757143,  0.190476190471429,  0.500000000000000 ]
    mass: 12.010700
    reduced_to: 1
  - symbol: C  # 15
    coordinates: [  0.047619047614286,  0.333333333328571,  0.500000000000000 ]
    mass: 12.010700
    reduced_to: 1
  - symbol: C  # 16
    coordinates: [  0.190476190471429,  0.333333333328571,  0.500000000000000 ]
    mass: 12.010700
    reduced_to: 1
  - symbol: C  # 17
    coordinates: [  0.333333333328571,  0.333333333328571,  0.500000000000000 ]
    mass: 12.010700
    reduced_to: 1
  - symbol: C  # 18
    coordinates: [  0.476190476185714,  0.333333333328571,  0.500000000000000 ]
    mass: 12.010700
    reduced_to: 1
  - symbol: C  # 19
    coordinates: [  0.619047619042857,  0.333333333328571,  0.500000000000000 ]
    mass: 12.010700
    reduced_to: 1
  - symbol: C  # 20
    coordinates: [  0.761904761900000,  0.333333333328571,  0.500000000000000 ]
    mass: 12.010700
    reduced_to: 1
  - symbol: C  # 21
    coordinates: [  0.904761904757143,  0.333333333328571,  0.500000000000000 ]
    mass: 12.010700
    reduced_to: 1
  - symbol: C  # 22
    coordinates: [  0.047619047614286,  0.476190476185714,  0.500000000000000 ]
    mass: 12.010700
    reduced_to: 1
  - symbol: C  # 23
    coordinates: [  0.190476190471429,  0.476190476185714,  0.500000000000000 ]
    mass: 12.010700
    reduced_to: 1
  - symbol: C  # 24
    coordinates: [  0.333333333328571,  0.476190476185714,  0.500000000000000 ]
    mass: 12.010700
    reduced_to: 1
  - symbol: C  # 25
    coordinates: [  0.476190476185714,  0.476190476185714,  0.500000000000000 ]
    mass: 12.010700
    reduced_to: 1
  - symbol: C  # 26
    coordinates: [  0.619047619042857,  0.476190476185714,  0.500000000000000 ]
    mass: 12.010700
    reduced_to: 1
  - symbol: C  # 27
    coordinates: [  0.761904761900000,  0.476190476185714,  0.500000000000000 ]
    mass: 12.010700
    reduced_to: 1
  - symbol: C  # 28
    coordinates: [  0.904761904757143,  0.476190476185714,  0.500000000000000 ]
    mass: 12.010700
    reduced_to: 1
  - symbol: C  # 29
    coordinates: [  0.047619047614286,  0.619047619042857,  0.500000000000000 ]
    mass: 12.010700
    reduced_to: 1
  - symbol: C  # 30
    coordinates: [  0.190476190471429,  0.619047619042857,  0.500000000000000 ]
    mass: 12.010700
    reduced_to: 1
  - symbol: C  # 31
    coordinates: [  0.333333333328571,  0.619047619042857,  0.500000000000000 ]
    mass: 12.010700
    reduced_to: 1
  - symbol: C  # 32
    coordinates: [  0.476190476185714,  0.619047619042857,  0.500000000000000 ]
    mass: 12.010700
    reduced_to: 1
  - symbol: C  # 33
    coordinates: [  0.619047619042857,  0.619047619042857,  0.500000000000000 ]
    mass: 12.010700
    reduced_to: 1
  - symbol: C  # 34
    coordinates: [  0.761904761900000,  0.619047619042857,  0.500000000000000 ]
    mass: 12.010700
    reduced_to: 1
  - symbol: C  # 35
    coordinates: [  0.904761904757143,  0.619047619042857,  0.500000000000000 ]
    mass: 12.010700
    reduced_to: 1
  - symbol: C  # 36
    coordinates: [  0.047619047614286,  0.761904761900000,  0.500000000000000 ]
    mass: 12.010700
    reduced_to: 1
  - symbol: C  # 37
    coordinates: [  0.190476190471429,  0.761904761900000,  0.500000000000000 ]
    mass: 12.010700
    reduced_to: 1
  - symbol: C  # 38
    coordinates: [  0.333333333328571,  0.761904761900000,  0.500000000000000 ]
    mass: 12.010700
    reduced_to: 1
  - symbol: C  # 39
    coordinates: [  0.476190476185714,  0.761904761900000,  0.500000000000000 ]
    mass: 12.010700
    reduced_to: 1
  - symbol: C  # 40
    coordinates: [  0.619047619042857,  0.761904761900000,  0.500000000000000 ]
    mass: 12.010700
    reduced_to: 1
  - symbol: C  # 41
    coordinates: [  0.761904761900000,  0.761904761900000,  0.500000000000000 ]
    mass: 12.010700
    reduced_to: 1
  - symbol: C  # 42
    coordinates: [  0.904761904757143,  0.761904761900000,  0.500000000000000 ]
    mass: 12.010700
    reduced_to: 1
  - symbol: C  # 43
    coordinates: [  0.047619047614286,  0.904761904757143,  0.500000000000000 ]
    mass: 12.010700
    reduced_to: 1
  - symbol: C  # 44
    coordinates: [  0.190476190471429,  0.904761904757143,  0.500000000000000 ]
    mass: 12.010700
    reduced_to: 1
  - symbol: C  # 45
    coordinates: [  0.333333333328571,  0.904761904757143,  0.500000000000000 ]
    mass: 12.010700
    reduced_to: 1
  - symbol: C  # 46
    coordinates: [  0.476190476185714,  0.904761904757143,  0.500000000000000 ]
    mass: 12.010700
    reduced_to: 1
  - symbol: C  # 47
    coordinates: [  0.619047619042857,  0.904761904757143,  0.500000000000000 ]
    mass: 12.010700
    reduced_to: 1
  - symbol: C  # 48
    coordinates: [  0.761904761900000,  0.904761904757143,  0.500000000000000 ]
    mass: 12.010700
    reduced_to: 1
  - symbol: C  # 49
    coordinates: [  0.904761904757143,  0.904761904757143,  0.500000000000000 ]
    mass: 12.010700
    reduced_to: 1
  - symbol: C  # 50
    coordinates: [  0.000000000000000,  0.000000000000000,  0.500000000000000 ]
    mass: 12.010700
    reduced_to: 50
  - symbol: C  # 51
    coordinates: [  0.142857142857143,  0.000000000000000,  0.500000000000000 ]
    mass: 12.010700
    reduced_to: 50
  - symbol: C  # 52
    coordinates: [  0.285714285714286,  0.000000000000000,  0.500000000000000 ]
    mass: 12.010700
    reduced_to: 50
  - symbol: C  # 53
    coordinates: [  0.428571428571429,  0.000000000000000,  0.500000000000000 ]
    mass: 12.010700
    reduced_to: 50
  - symbol: C  # 54
    coordinates: [  0.571428571428571,  0.000000000000000,  0.500000000000000 ]
    mass: 12.010700
    reduced_to: 50
  - symbol: C  # 55
    coordinates: [  0.714285714285714,  0.000000000000000,  0.500000000000000 ]
    mass: 12.010700
    reduced_to: 50
  - symbol: C  # 56
    coordinates: [  0.857142857142857,  0.000000000000000,  0.500000000000000 ]
    mass: 12.010700
    reduced_to: 50
  - symbol: C  # 57
    coordinates: [  0.000000000000000,  0.142857142857143,  0.500000000000000 ]
    mass: 12.010700
    reduced_to: 50
  - symbol: C  # 58
    coordinates: [  0.142857142857143,  0.142857142857143,  0.500000000000000 ]
    mass: 12.010700
    reduced_to: 50
  - symbol: C  # 59
    coordinates: [  0.285714285714286,  0.142857142857143,  0.500000000000000 ]
    mass: 12.010700
    reduced_to: 50
  - symbol: C  # 60
    coordinates: [  0.428571428571429,  0.142857142857143,  0.500000000000000 ]
    mass: 12.010700
    reduced_to: 50
  - symbol: C  # 61
    coordinates: [  0.571428571428571,  0.142857142857143,  0.500000000000000 ]
    mass: 12.010700
    reduced_to: 50
  - symbol: C  # 62
    coordinates: [  0.714285714285714,  0.142857142857143,  0.500000000000000 ]
    mass: 12.010700
    reduced_to: 50
  - symbol: C  # 63
    coordinates: [  0.857142857142857,  0.142857142857143,  0.500000000000000 ]
    mass: 12.010700
    reduced_to: 50
  - symbol: C  # 64
    coordinates: [  0.000000000000000,  0.285714285714286,  0.500000000000000 ]
    mass: 12.010700
    reduced_to: 50
  - symbol: C  # 65
    coordinates: [  0.142857142857143,  0.285714285714286,  0.500000000000000 ]
    mass: 12.010700
    reduced_to: 50
  - symbol: C  # 66
    coordinates: [  0.285714285714286,  0.285714285714286,  0.500000000000000 ]
    mass: 12.010700
    reduced_to: 50
  - symbol: C  # 67
    coordinates: [  0.428571428571429,  0.285714285714286,  0.500000000000000 ]
    mass: 12.010700
    reduced_to: 50
  - symbol: C  # 68
    coordinates: [  0.571428571428571,  0.285714285714286,  0.500000000000000 ]
    mass: 12.010700
    reduced_to: 50
  - symbol: C  # 69
    coordinates: [  0.714285714285714,  0.285714285714286,  0.500000000000000 ]
    mass: 12.010700
    reduced_to: 50
  - symbol: C  # 70
    coordinates: [  0.857142857142857,  0.285714285714286,  0.500000000000000 ]
    mass: 12.010700
    reduced_to: 50
  - symbol: C  # 71
    coordinates: [  0.000000000000000,  0.428571428571429,  0.500000000000000 ]
    mass: 12.010700
    reduced_to: 50
  - symbol: C  # 72
    coordinates: [  0.142857142857143,  0.428571428571429,  0.500000000000000 ]
    mass: 12.010700
    reduced_to: 50
  - symbol: C  # 73
    coordinates: [  0.285714285714286,  0.428571428571429,  0.500000000000000 ]
    mass: 12.010700
    reduced_to: 50
  - symbol: C  # 74
    coordinates: [  0.428571428571429,  0.428571428571429,  0.500000000000000 ]
    mass: 12.010700
    reduced_to: 50
  - symbol: C  # 75
    coordinates: [  0.571428571428571,  0.428571428571429,  0.500000000000000 ]
    mass: 12.010700
    reduced_to: 50
  - symbol: C  # 76
    coordinates: [  0.714285714285714,  0.428571428571429,  0.500000000000000 ]
    mass: 12.010700
    reduced_to: 50
  - symbol: C  # 77
    coordinates: [  0.857142857142857,  0.428571428571429,  0.500000000000000 ]
    mass: 12.010700
    reduced_to: 50
  - symbol: C  # 78
    coordinates: [  0.000000000000000,  0.571428571428571,  0.500000000000000 ]
    mass: 12.010700
    reduced_to: 50
  - symbol: C  # 79
    coordinates: [  0.142857142857143,  0.571428571428571,  0.500000000000000 ]
    mass: 12.010700
    reduced_to: 50
  - symbol: C  # 80
    coordinates: [  0.285714285714286,  0.571428571428571,  0.500000000000000 ]
    mass: 12.010700
    reduced_to: 50
  - symbol: C  # 81
    coordinates: [  0.428571428571429,  0.571428571428571,  0.500000000000000 ]
    mass: 12.010700
    reduced_to: 50
  - symbol: C  # 82
    coordinates: [  0.571428571428571,  0.571428571428571,  0.500000000000000 ]
    mass: 12.010700
    reduced_to: 50
  - symbol: C  # 83
    coordinates: [  0.714285714285714,  0.571428571428571,  0.500000000000000 ]
    mass: 12.010700
    reduced_to: 50
  - symbol: C  # 84
    coordinates: [  0.857142857142857,  0.571428571428571,  0.500000000000000 ]
    mass: 12.010700
    reduced_to: 50
  - symbol: C  # 85
    coordinates: [  0.000000000000000,  0.714285714285714,  0.500000000000000 ]
    mass: 12.010700
    reduced_to: 50
  - symbol: C  # 86
    coordinates: [  0.142857142857143,  0.714285714285714,  0.500000000000000 ]
    mass: 12.010700
    reduced_to: 50
  - symbol: C  # 87
    coordinates: [  0.285714285714286,  0.714285714285714,  0.500000000000000 ]
    mass: 12.010700
    reduced_to: 50
  - symbol: C  # 88
    coordinates: [  0.428571428571429,  0.714285714285714,  0.500000000000000 ]
    mass: 12.010700
    reduced_to: 50
  - symbol: C  # 89
    coordinates: [  0.571428571428571,  0.714285714285714,  0.500000000000000 ]
    mass: 12.010700
    reduced_to: 50
  - symbol: C  # 90
    coordinates: [  0.714285714285714,  0.714285714285714,  0.500000000000000 ]
    mass: 12.010700
    reduced_to: 50
  - symbol: C  # 91
    coordinates: [  0.857142857142857,  0.714285714285714,  0.500000000000000 ]
    mass: 12.010700
    reduced_to: 50
  - symbol: C  # 92
    coordinates: [  0.000000000000000,  0.857142857142857,  0.500000000000000 ]
    mass: 12.010700
    reduced_to: 50
  - symbol: C  # 93
    coordinates: [  0.142857142857143,  0.857142857142857,  0.500000000000000 ]
    mass: 12.010700
    reduced_to: 50
  - symbol: C  # 94
    coordinates: [  0.285714285714286,  0.857142857142857,  0.500000000000000 ]
    mass: 12.010700
    reduced_to: 50
  - symbol: C  # 95
    coordinates: [  0.428571428571429,  0.857142857142857,  0.500000000000000 ]
    mass: 12.010700
    reduced_to: 50
  - symbol: C  # 96
    coordinates: [  0.571428571428571,  0.857142857142857,  0.500000000000000 ]
    mass: 12.010700
    reduced_to: 50
  - symbol: C  # 97
    coordinates: [  0.714285714285714,  0.857142857142857,  0.500000000000000 ]
    mass: 12.010700
    reduced_to: 50
  - symbol: C  # 98
    coordinates: [  0.857142857142857,  0.857142857142857,  0.500000000000000 ]
    mass: 12.010700
    reduced_to: 50

displacements:
- atom:    1
  displacement:
    [   0.0038840372586065,  0.0000000000000000,  0.0031486909301734 ]
